     175
 i =      198, E =     -8792.2849341992
 Ni        12.5600833605       12.4390289211       12.4385890055
 Ni        12.7062290848       12.3757130552       10.0396642583
 Ni        12.5727946668       10.2778261695       11.5018150211
 Ni        12.6186205988       14.6465116022       13.4224966146
 Ni        12.4495259491       12.4852669820       14.9514315412
 Ni        14.6539705478       11.8024645084       11.5098391236
 Ni        10.4349308885       11.7681162695       11.3679043712
 Ni        14.5578689059       13.0868125297       13.6248103579
 Ni        10.4679778213       13.2280361035       13.4382655480
 Ni        13.8456221321       14.1058350208       11.2281540256
 Ni        11.3160559014       14.1120197749       11.2386478724
 Ni        13.8351223268       10.6301704358       13.5636317533
 Ni        11.1706788365       10.7760010038       13.5591041589
 Pt        12.7131055543       12.2801204541        7.3744556001
 Ni        12.6625308685       10.1681291959        9.0158553944
 Ni        14.7646406239       11.6928578959        8.9721784719
 Ni        10.4383363344       11.4197617987        8.8321989056
 Ni        14.1573799024       14.2964250358        8.6331474615
 Ni        11.3080329827       13.9602534106        8.8292537056
 Pt        12.2286441095        7.9486351549       10.2682527671
 Pt        16.8476360994       11.1081857209       10.3635761186
 Ni        14.6956112881        9.4339762382       10.4342038495
 Pt         6.9534755589       12.1771081030       10.3329396238
 Ni        10.0363100000        9.3690803566       10.4498242887
 Pt        15.1977293058       16.3299277548       10.0969615290
 Ni        16.0949369034       13.7025102903       10.4372592060
 Pt         9.3144413828       16.8923820392       10.6043537944
 Ni         9.2304001012       13.6377763683       10.1746103148
 Ni        12.5566988800       15.9472580620       10.1185535222
 Ni        13.8325849743        8.3034047718       12.4943372450
 Ni        16.1435278475       10.0225224698       12.7539288439
 Ni        10.9602157194        8.3704444248       12.5796400706
 Ni         8.8911723492       10.1547123120       12.6229188565
 Ni        13.9565666169       16.4424004777       12.3003258134
 Ni        16.1003552135       15.0269983808       12.7637189415
 Ni        11.3751806283       16.4344544491       12.3023978270
 Ni         9.1605014012       15.1058125883       12.4282375627
 Ni        16.9576872114       12.5021573473       12.9015732984
 Ni         8.2372349817       12.7612300638       12.4917240574
 Ni        14.4420581128       15.8356648527       14.6823215838
 Ni        10.4344653182       15.5602407885       14.5727760864
 Pt         9.3248424078        8.5121595879       14.9283634542
 Pt         7.9017151521       13.6941334743       16.1920261380
 Pt        12.2132114365       17.3893903447       15.2018385855
 Pt        16.1827636546       13.9862366174       15.4361097514
 Ni        15.9655535624       11.1797634239       15.2391777202
 Ni         8.8943559561       11.5724649334       14.7097313103
 Pt        14.8877082941        8.3150314840       14.9894890177
 Ni        12.2334398676        8.8334698876       14.6916965673
 Ni        12.6341467970       14.7636272817       15.9657918350
 Ni        10.8096420866       10.5859528996       16.1068927252
 Ni        10.4493876659       13.5534638288       16.1681840874
 Ni        14.1650989253       12.9040840960       16.7742270552
 Ni        13.4971954673       10.4153184083       16.1724437008
 Pt        12.1772306902       11.7701372077       18.0402265525
