55
Lattice="0.0 0.0 0.0 0.0 0.0 0.0 0.0 0.0 0.0" Properties=species:S:1:pos:R:3:Z:I:1 i=82, pbc="F F F" E=-1828.3106527798
Au      8.47564571      11.22734125      13.40356565       79 
Au     11.25397713       7.78096153      14.69524802       79 
Au     10.64950957      10.50634537      14.95572615       79 
Au      8.14748805      12.85594005       9.06898317       79 
Au      8.49745419       8.73510883      14.66827199       79 
Au      8.91464508      13.43049200      11.71804176       79 
Au     11.38629736       8.52774093      10.65033106       79 
Au     11.21335247       5.16809721      13.51851101       79 
Au     10.68849520       4.05534123      10.98864268       79 
Au      5.59077659       5.34347745       9.27516536       79 
Au     12.64877649       9.72509100      13.21207914       79 
Au     14.33747604       6.46540063      10.24125333       79 
Au      7.42355945      11.19902446       6.92567228       79 
Au      8.16960288       8.05508874       7.79036911       79 
Au      5.18461711       9.58404487       7.46252493       79 
Au      7.81819844       8.64808318      10.52089580       79 
Au      5.27541698       7.20617974      11.40672872       79 
Au      9.99175789      12.36928478       7.04955004       79 
Au      9.60871444      10.14806523       8.96610850       79 
Au      9.29959515      10.50911899       5.01559341       79 
Au      8.00973688       4.17102037      10.09388167       79 
Au     13.33043002       4.38893681      11.88140272       79 
Au     10.83324806      12.57728921       9.85680440       79 
Au     13.75227169       8.88665636       8.94012200       79 
Au     11.52996793       9.11068159       3.90903517       79 
Au      6.90159303       6.66941584      13.56714999       79 
Au      9.61745039       6.49953499       9.69240952       79 
Au      6.83500929      11.62184502      11.22705791       79 
Au     11.05208894       7.97692514       7.76872912       79 
Au      8.59334196       4.44012150      12.83312434       79 
Au      5.49833296      12.03111466       8.76706143       79 
Au     11.12510891      11.99529231      12.60899971       79 
Au      9.51098085       7.73299586       5.21051591       79 
Au     13.16880655       9.06245939       6.20246887       79 
Au     13.60296429       6.51327536       7.50755445       79 
Au     14.75444658       8.93082493      11.53365117       79 
Au     12.82495685       4.37656783       9.15994129       79 
Au     12.10022924       6.64775334       5.12904775       79 
Au      5.09235796       9.72205597      10.28955122       79 
Au      9.79479897       4.95255065       5.55339501       79 
Au      7.69997759       5.07997120       7.46935547       79 
Au      9.56617007       7.35919357      12.34094046       79 
Au     12.93608639      10.96753142      10.73001357       79 
Au     11.94974032      11.49765806       5.27609134       79 
Au      5.95821402       4.56037136      11.94466126       79 
Au      3.89635396       7.56129776       8.99194518       79 
Au      6.94885419       8.92500648       5.34687384       79 
Au      5.60393487       6.88781816       6.90945621       79 
Au     12.30954888      11.08024818       7.99776647       79 
Au      6.41770550       9.36419639      12.85998842       79 
Au     12.32660623       4.20914462       6.43885088       79 
Au      7.31348894       6.08341210       4.87080380       79 
Au     10.18757747       4.09651612       8.23567402       79 
Au      9.10117655       6.00549354      15.15502724       79 
Au     13.15477251       7.01725436      12.76522550       79 
