     297
 i =        1, E =     -8850.4494973686
 Ni        12.4958222572       12.4534101439       12.5555393453
 Ni        12.4989571794       12.4994315937       10.1475250676
 Ni        12.5033297640       10.3432761398       11.4279623146
 Ni        12.4912357864       14.5939640381       13.6436072602
 Ni        12.4950191300       12.4170806833       14.9446232869
 Ni        14.5279551251       11.8178723760       11.4783591579
 Ni        10.4686931471       11.8421187795       11.4361379827
 Ni        14.5160840038       13.1134990802       13.6515433765
 Ni        10.4712258399       13.1026016281       13.6426521697
 Ni        13.7871539528       14.1934700955       11.5008032804
 Ni        11.2845617592       14.2498290983       11.5007715942
 Ni        13.7195636138       10.6942725568       13.6289007439
 Ni        11.2175608346       10.6840796763       13.5646056936
 Pt        12.4373693136       12.6214371740        7.2634283367
 Ni        12.5681385083       10.2951282048        8.9332219610
 Ni        14.5750948162       11.7604015094        8.9450757750
 Ni        10.4199589308       11.7552342806        8.9405284268
 Ni        13.8427757829       14.2419356588        9.0053859624
 Ni        11.2244216081       14.3110639032        9.0197942240
 Pt        12.4593214472        7.8127674145       10.0323665824
 Pt        16.9579587424       11.0577243344       10.1178887044
 Ni        14.6500525115        9.5495445336       10.4259839285
 Pt         7.9565150443       11.1948264052       10.1658376336
 Ni        10.4189542939        9.6154664670       10.3018057006
 Pt        15.3478007272       16.3289338628       10.3394704617
 Ni        15.9095147671       13.5753063378       10.3026309723
 Pt         9.7601578029       16.4025175133       10.3267765367
 Ni         9.1639591806       13.6467133676       10.2875927230
 Ni        12.5613344236       16.0569619586       10.2878655909
 Ni        13.7827528713        8.4764666371       12.5120967669
 Ni        15.9051284608       10.0262569067       12.6290106360
 Ni        11.2766205802        8.4225112075       12.4916273853
 Ni         9.0837480520       10.0141619509       12.4313957530
 Ni        13.7915247602       16.4453030916       12.5638520284
 Ni        15.9795610766       14.8499797223       12.5714365154
 Ni        11.2874871353       16.5167304749       12.5745404364
 Ni         9.1430382449       14.9181160431       12.5636254237
 Ni        16.6614939026       12.4304761636       12.5720327471
 Ni         8.3283421881       12.5078500770       12.5471463983
 Ni        14.5735200182       15.3796677070       14.7138055922
 Ni        10.3537038086       15.3668468766       14.7269542932
 Pt         9.6452492925        8.5536703048       14.6864113936
 Pt         8.0093392824       13.8069038249       15.0006624492
 Pt        12.4107731442       17.1401971427       15.0427985049
 Pt        16.8852323372       13.9467677378       15.0538735971
 Ni        15.8589828719       11.3749618487       14.7769524771
 Ni         9.0980411987       11.2973124166       14.7247624218
 Pt        15.1483605028        8.5190511924       14.8553278859
 Ni        12.4331218134        8.8746853029       14.7879419576
 Ni        12.4960741577       14.6338180209       16.1194530041
 Ni        11.1610251917       10.6270118351       16.0528077839
 Ni        10.4262444007       13.1625484703       16.1274064570
 Ni        14.5186716095       13.1539492608       16.1885289296
 Ni        13.8396606260       10.6374100173       16.1207678827
 Pt        12.4522216505       12.2548614759       17.8332400000
  H        14.2456076268       10.0881263317        8.7727824713
  H        10.8463417222       10.1082729314        8.6775280456
  H        15.2826422200       13.3361362627        8.6652542804
  H         9.7949274918       13.3791630556        8.7125946067
  H        12.5705341345       15.4013079330        8.7109260371
  H        15.3608533119        8.6141735357       11.6947831108
  H         9.7678345577        8.6735144548       11.5650895995
  H        17.0216393777       13.8598011017       11.6399280950
  H         8.0810103551       13.9615884214       11.6254809129
  H        12.5444356352       17.2252922557       11.6005503916
  H        12.5411925239        7.7016016683       13.4278067551
  H        17.0268908445       10.9894476926       13.5135547441
  H         8.0349219881       11.0026681327       13.3438579280
  H        15.2923946517       16.2589447635       13.4160741190
  H         9.7643802973       16.3277306411       13.4152032005
  H        14.1772901599       14.8407039171       16.3466912116
  H        10.7795359245       14.8158157235       16.3376620041
  H        15.2689993383       11.5795953468       16.3918731872
  H         9.7139582409       11.5526291085       16.2981495474
  H        12.4880182741        9.5113797816       16.3689811595
  H        13.4431717311       11.1777312679        7.7294261194
  H        11.5717061552       11.1318873911        7.7651589403
  H        13.5913719015        8.8757889206        9.1536608115
  H        11.5106866538        8.9005879960        9.0681739599
  H        14.0705494628       12.9623007918        7.8032854806
  H        15.6155350307       10.3564758914        9.1545720641
  H        16.2514448346       12.3124606709        9.0710118919
  H        10.8243687175       13.0606099492        7.8201782396
  H         9.3041245123       10.4638094604        9.2326098220
  H         8.7996000833       12.3807238767        9.1237419216
  H        12.5503225502       14.3033050190        7.8088533615
  H        15.4316721778       14.8967656675        9.2367368311
  H        13.9877175738       15.9562493916        9.2633441275
  H         9.6308730291       14.9609841166        9.2352958920
  H        11.1299606537       16.0224479357        9.2416212646
  H        14.0403842612        7.9710896325       10.8415251937
  H        16.2964247090        9.6683370033       10.9585999882
  H        10.8776660570        8.0142713813       10.8216707878
  H         8.7417304340        9.6916666759       10.7400982690
  H        16.5063924168       15.1023206658       10.8939454239
  H        17.2656106723       12.6267324980       10.8944387215
  H         8.6009170595       15.1766244321       10.8969652792
  H         7.7405533400       12.7982969679       10.8795263690
  H        13.8509371757       17.0669986215       10.9046883596
  H        11.2747478546       17.0760714825       10.8860579480
  H        15.4167249222        8.3978869631       13.1511920984
  H        12.5570608215        7.4715726581       11.7733574314
  H        13.7269452422        7.8240266893       14.1662242991
  H        17.1941787169       10.9163104254       11.8700447915
  H        16.3234465583        9.7405037142       14.2876075221
  H         9.5679293010        8.3819872960       12.9354587763
  H        11.1780559732        7.8062178265       14.1170776717
  H         7.7382754673       10.9720294785       11.8784339514
  H         8.5200672728        9.7612568790       14.0760273520
  H        15.4799516902       16.4810873423       12.0619331706
  H        12.5778093336       17.4671262373       13.2613656657
  H        14.0164489698       16.9514610570       14.2088970758
  H        17.2229464340       13.9072313504       13.3243716770
  H        16.2645704295       15.3791191360       14.2055446039
  H         9.5969789739       16.5633718389       12.0599613311
  H        10.8858335213       16.9759104443       14.2099628331
  H         7.8173205420       14.0122670694       13.2307308342
  H         8.6789177063       15.2692101958       14.1885948423
  H        17.1720988989       12.3858031333       14.2262864729
  H         7.7183561213       12.2356501738       14.1632325287
  H        13.5170411952       16.0705038605       15.9265093191
  H        15.5202194857       14.6236146804       15.9961663967
  H        11.4047181691       16.0409757679       16.0011379535
  H         9.3674375911       14.5429317892       15.9004129222
  H        16.2074255268       12.6163566766       15.9952005659
  H        15.4565643378       10.0435790562       15.8112411447
  H         9.5696757379        9.9855623899       15.7671759966
  H         8.7675898423       12.5373846749       15.9490159092
  H        11.0164721553        8.9066429897       15.7593775811
  H        13.7908506970        8.8965513483       15.9031224348
  H        11.5734175557       13.7610038897       17.3046620375
  H        13.3470614591       13.7446364973       17.3335943450
  H        10.8116857096       11.8565966434       17.2389028019
  H        12.4559763726       10.6140658094       17.2455047643
  H        14.0995986429       11.9067653916       17.3150978401
  H        13.9456195887       10.4991095736        7.8504101647
  H        11.1413140049       10.5058159255        7.8714128520
  H        14.0198346631        9.2614326403        8.7576747172
  H        11.1047759565        9.3199982528        8.6406253924
  H        14.8837114864       13.2153002220        7.9553189752
  H        15.1448370601       10.0675033708        8.7616327988
  H        16.0287598005       12.7728448017        8.6634547661
  H        10.1836808663       13.2667360103        7.9906929569
  H         9.8789067512       10.1007792063        8.6566644651
  H         9.0507597388       12.8719450642        8.6519637229
  H        12.5578622917       14.9551049509        7.9832216751
  H        15.5889895000       14.2530358265        8.6821815380
  H        13.3761744918       15.9109355723        8.6746268031
  H         9.5064969034       14.3722776754        8.6684568809
  H        11.8193517334       15.9468224861        8.6649981889
  H        14.8732143835        7.9613744150       11.1749417183
  H        16.0675643050        8.8688000140       11.2457712578
  H        10.1807554297        8.0458938738       11.0965155672
  H         8.9755107194        8.8886384716       11.0324191130
  H        17.0686557022       14.6293626315       11.1447408275
  H        17.4454242673       13.2357366215       11.1333938665
  H         8.0467540442       14.7436115461       11.1371378413
  H         7.6135170273       13.4096528525       11.1435453168
  H        13.2902691843       17.4482057637       11.1533016550
  H        11.8950565891       17.4691951229       11.1754302766
  H        15.5434381025        8.2541353112       12.3883799353
  H        12.5588406612        7.1836221095       12.6392574875
  H        13.1542692635        7.4908902068       13.8759215959
  H        17.4775679793       10.8301235166       12.7049289016
  H        17.0060123243       10.2146973878       14.0006636785
  H         9.5043683972        8.2669143099       12.2614116658
  H        11.7295875669        7.4345148428       13.9033567759
  H         7.5676012533       10.8952613957       12.7235195051
  H         7.9752241792       10.2148754278       13.8343910672
  H        15.5514021387       16.6014283249       12.7565787840
  H        12.6120884802       17.7383818494       12.4712124627
  H        14.7796436899       16.9826517972       13.9341224097
  H        17.5134706272       14.0050474894       12.3961085794
  H        16.0394863212       16.0541571646       13.9108700406
  H         9.5144659810       16.6826578506       12.7261653202
  H        10.1617451376       16.9503029518       13.8996064659
  H         7.5680290358       14.1399137783       12.4197427615
  H         8.9282704523       16.0543097221       13.9020149852
  H        17.4531515606       11.6626816638       13.9533829514
  H         7.5331655729       11.6304789870       13.8901780639
  H        13.9542197389       15.6705298025       16.3561959150
  H        15.0433433148       14.8905682496       16.3612238159
  H        11.0352807764       15.6548770319       16.3729506360
  H         9.9000711333       14.8698176962       16.3723143308
  H        15.9833375084       12.0999853866       16.4065649049
  H        15.6333419076       10.6084615552       16.3338879586
  H         9.3897912928       10.6446624144       16.3341880636
  H         9.0199178056       12.0516976991       16.3434283906
  H        11.6834003468        8.9489376115       16.3802851996
  H        13.1936225122        8.9697952997       16.4028691288
  H        11.1191042806       14.4161629496       17.2009077230
  H        13.8361416253       14.4426929287       17.2340561270
  H        10.1448825697       11.6392430654       17.0921160295
  H        12.4602596475        9.9472360183       17.0663629547
  H        14.8763409639       11.6858984373       17.1429253969
  H        12.4995300684       10.7992783953        7.2363731481
  H        12.6230468555        8.6164037120        8.4004607754
  H        14.1690619377       12.0527946639        7.2513737901
  H        16.1617204920       11.1275699632        8.4832436202
  H        10.7313298828       11.9797402652        7.2246958178
  H         8.7737549174       11.2537864094        8.5491606088
  H        13.6084171547       14.0451927755        7.2666352293
  H        14.9723159560       15.5722523303        8.7177732498
  H        11.3660939765       14.1273103864        7.2686244570
  H        10.3393813358       15.8089465816        8.6933465983
  H        14.2543004750        7.9937237179        9.7020191505
  H        16.2654551799        9.3845961396        9.7776602724
  H        10.7016538259        8.0368961892        9.5704736794
  H         8.7603284793        9.6322328838        9.6813971371
  H        17.3179526037       12.7818749646        9.6033362477
  H        16.5491901748       15.0903582568        9.7094107610
  H         7.7320245027       12.9109278306        9.5657833458
  H         8.5822245969       15.1937682137        9.6670372736
  H        13.8425422539       17.0811629965        9.6502023949
  H        11.3212985351       17.1471170409        9.7174571996
  H        13.5637603512        7.1723784849       11.3485403593
  H        14.7359159318        7.3616192582       13.4727162235
  H        17.2160733392        9.8583364555       11.4679291140
  H        16.4525655427        8.6553002160       13.5763861197
  H        11.4490585243        7.0857615999       11.3768655877
  H        10.1621252757        7.3802742846       13.3824238526
  H         7.6248842981        9.9444364608       11.4575809246
  H         8.3856867823        8.7012236006       13.3686604444
  H        14.8515791849       17.5119449399       11.6480817555
  H        13.4901567123       17.7683644994       13.7138598116
  H        16.6481526616       16.1389995029       11.5968895783
  H        17.2863879050       15.1088804350       13.7018124510
  H        10.3258595515       17.6074490424       11.5972759477
  H        11.5129974882       17.8838100372       13.6399547007
  H         8.4750367433       16.2506631999       11.6197960856
  H         7.7859195607       15.0414061147       13.6962330729
  H        17.9135781174       11.8377337980       11.4886129132
  H        17.8084697109       13.1780250824       13.6884548001
  H         7.0147964225       11.9225933026       11.5550769407
  H         7.0528908359       13.1296216665       13.6078708080
  H        14.1787616841       16.9432905796       15.4403344766
  H        16.1619501465       15.6002730283       15.4425989344
  H         8.7381331403       15.4355741959       15.4019031633
  H        10.6312111452       16.9525437768       15.4486314782
  H        17.2762738783       12.1801125255       15.4391201266
  H        16.4041516620        9.7691723947       15.3099667603
  H         8.4440268483        9.7877034919       15.3106204873
  H         7.6834264202       12.0669471754       15.4497437777
  H        11.1532044752        7.8296652164       15.3851319110
  H        13.6013743420        7.7607915066       15.4675337186
  H        12.5857517820       16.3091929622       16.6605276563
  H        12.3933337637       14.0693492282       17.8093008124
  H        10.0476467871        9.2793687033       16.3044024172
  H        11.3533598180       10.7777793636       17.8042625134
  H         8.8344289660       13.7188840677       16.6196493214
  H        10.7392865872       12.9043622798       17.8456280495
  H        16.0818615143       13.8213086773       16.6632677068
  H        14.1470183539       12.9428644034       17.8908364211
  H        14.8727456503        9.2812923366       16.4884578945
  H        13.6330515114       10.8439279345       17.8498865285
  H        12.6041176539        9.4232419003        7.5223354592
  H        15.3874435755       11.4508954949        7.5339496026
  H         9.5941594126       11.4749074724        7.5442201055
  H        14.3621748311       14.9103017153        7.5759056882
  H        10.7476005218       14.9887628626        7.5828753807
  H        15.4942593747        8.3988392211        9.6087475981
  H         9.6151934189        8.4657024816        9.4296638850
  H        17.2525589834       13.9846876925        9.4338777706
  H         7.8433600903       14.0722378114        9.3765279126
  H        12.6011764931       17.4196074667        9.3830631066
  H        14.3093576498        6.9007126725       12.5247499652
  H        17.2521592506        9.0740706186       12.6734491671
  H        10.7827781257        6.8405792487       12.4665035211
  H         7.7513517884        9.0382203738       12.3552627346
  H        14.3261740188       18.0110561763       12.5536102558
  H        17.3434895811       15.7813588344       12.5879791443
  H        10.8037891701       18.1053873263       12.5675983215
  H         7.8133146921       15.9053824936       12.5529666395
  H        18.3153565036       12.4125372536       12.5607373189
  H         6.6677635986       12.5435085141       12.5688916633
  H        15.4201796049       16.5185257752       15.5747212608
  H         9.5203925067       16.5107858485       15.5781243829
  H        17.2127941255       10.9733058507       15.6283570673
  H         7.7643000352       10.8479983440       15.5829968268
  H        12.4366584470        7.4582585314       15.6413746163
  H        12.4992921326       15.5160016180       17.5230866386
  H        10.6348669560        9.9068070218       17.4421250213
  H         9.6423516052       13.4351845187       17.5601164623
  H        15.3130598088       13.4579549051       17.6031114126
  H        14.3668877949        9.9451345726       17.5250640317
  H        12.4122698663       12.6636568035        5.7183302251
  H        12.4516661677        6.4653236134        9.2725701466
  H        18.2647892873       10.6384134851        9.4006321406
  H         6.6332206885       10.8448386488        9.4542395912
  H        16.1605268229       17.4629729639        9.6714452696
  H         8.9619586649       17.5480028742        9.6609645396
  H         8.7967671719        7.4120195991       15.2895508451
  H         6.6964550918       14.2002833940       15.7100721458
  H        12.4005337978       18.5147330187       15.7482626896
  H        18.1905787158       14.3685123027       15.7740793522
  H        15.9302480708        7.3612281395       15.5275876858
  H        12.4239579871       12.2113784060       19.3782263781
     297
 i =        2, E =     -8852.7649814347
 Ni        12.4967916855       12.4529209503       12.5570216533
 Ni        12.4977458852       12.4942290686       10.1284890112
 Ni        12.5039467861       10.3230389440       11.4215396904
 Ni        12.4851897821       14.6134477960       13.6526159623
 Ni        12.4881427297       12.4192249624       14.9791311276
 Ni        14.5561512266       11.8124457726       11.4674479870
 Ni        10.4410760528       11.8387953539       11.4269391412
 Ni        14.5319408999       13.1195259293       13.6650485486
 Ni        10.4426740100       13.1044897057       13.6516456362
 Ni        13.7993877718       14.2175656074       11.4907485778
 Ni        11.2702627775       14.2654109690       11.4969654797
 Ni        13.7359407454       10.6817778240       13.6413384166
 Ni        11.2023301208       10.6692207636       13.5721831851
 Pt        12.4302261072       12.6622215740        7.0246635656
 Ni        12.5707144997       10.2826027771        8.9192599688
 Ni        14.5857802206       11.7569867443        8.9303849066
 Ni        10.4138957986       11.7333110394        8.9160397508
 Ni        13.8485229366       14.2484310184        8.9942364438
 Ni        11.2213209556       14.3141023122        9.0230766668
 Pt        12.4438380946        7.6123696154        9.8983872549
 Pt        17.1601880905       10.9979870675       10.0029550236
 Ni        14.6659453091        9.5384256376       10.4385487380
 Pt         7.7344079154       11.1466945068       10.0513787483
 Ni        10.4157707920        9.5972750398       10.3027724357
 Pt        15.4875615254       16.5204971304       10.2496379521
 Ni        15.9188451330       13.5744641062       10.2978408515
 Pt         9.6297968915       16.5970005462       10.2394098682
 Ni         9.1482835970       13.6469078935       10.2766945381
 Ni        12.5589738551       16.0786545994       10.2670687340
 Ni        13.7874325386        8.4729552018       12.5129855528
 Ni        15.9292507629       10.0266320194       12.6318041141
 Ni        11.2802894785        8.4043429926       12.5064163750
 Ni         9.0663240308       10.0039656301       12.4329328981
 Ni        13.7963516948       16.4612859464       12.5566818400
 Ni        15.9978495964       14.8551839650       12.5691940591
 Ni        11.2892990700       16.5238281176       12.5791866152
 Ni         9.1197308415       14.9286483588       12.5633844549
 Ni        16.6859351134       12.4375515674       12.5841403616
 Ni         8.2961454971       12.5006688644       12.5489020460
 Ni        14.5783031130       15.3820706663       14.7090092788
 Ni        10.3470980573       15.3849257946       14.7345183617
 Pt         9.4988648216        8.3626505763       14.7776184249
 Pt         7.7835931118       13.8737468233       15.1235334447
 Pt        12.4015473311       17.3498144669       15.1776490765
 Pt        17.0822041172       14.0160655640       15.1735612702
 Ni        15.8762105072       11.3701631133       14.7916787327
 Ni         9.0768567486       11.2981976089       14.7422298187
 Pt        15.2655853294        8.3257304634       14.9379593500
 Ni        12.4340893592        8.8613162754       14.8091647484
 Ni        12.4970307550       14.6470058447       16.1272237847
 Ni        11.1569697071       10.6159421507       16.0716751957
 Ni        10.4130762600       13.1760912417       16.1429525075
 Ni        14.5283206066       13.1603432305       16.2109416350
 Ni        13.8491712215       10.6364886338       16.1313964186
 Pt        12.4499796869       12.2284678910       18.0795629443
  H        14.2461307908       10.0771750250        8.7389853438
  H        10.7987726135       10.0520234661        8.6107690398
  H        15.3249425297       13.3645492772        8.5799517948
  H         9.7482841707       13.3874773945        8.6599207864
  H        12.5678825972       15.4708740138        8.6580398136
  H        15.4565087985        8.4966880519       11.6735608011
  H         9.7074424957        8.6224972564       11.5485131691
  H        17.0985865760       13.8957200708       11.6594841595
  H         8.0108547933       13.9773385184       11.6294733366
  H        12.5207675387       17.3397699032       11.5805529443
  H        12.5577714201        7.5831276037       13.4272570817
  H        17.1456542567       10.9503289523       13.5362067575
  H         7.9730219209       10.9618942261       13.3199403297
  H        15.3521870412       16.3293813377       13.4413854831
  H         9.7086805571       16.4118788110       13.4436416614
  H        14.1779648648       14.8582204505       16.4015610620
  H        10.7444816700       14.8300291533       16.3823182517
  H        15.3054818291       11.5749684456       16.4788714819
  H         9.6699277292       11.5295392000       16.3486369983
  H        12.4870264478        9.4284969955       16.4638902262
  H        13.4412670529       11.1642794108        7.6471474868
  H        11.5744422134       11.1259132570        7.6770412145
  H        13.6114227907        8.7537683504        9.0862480827
  H        11.5096478962        8.7939160044        8.9978934209
  H        14.0499012629       12.9336023896        7.7335900717
  H        15.7182161046       10.3121961866        9.0667012737
  H        16.3685591194       12.2983282287        8.9806040624
  H        10.8176197659       13.0565969735        7.6944568723
  H         9.2391670668       10.4425843685        9.2087070664
  H         8.7322526902       12.3618857251        9.0856826056
  H        12.5532003522       14.3215236100        7.6605571304
  H        15.4787247440       14.9682026608        9.1898706430
  H        14.0281567566       16.0141154730        9.2366199999
  H         9.5763884934       15.0040060637        9.2023042134
  H        11.0662723486       16.0694699747        9.2013159323
  H        14.0371119146        7.8956003965       10.8124243956
  H        16.3549866421        9.6774688468       10.9346713087
  H        10.8895467098        7.9313276096       10.8033186470
  H         8.6840758534        9.6667242533       10.6992643730
  H        16.5700611147       15.1655389336       10.8410115238
  H        17.3852753514       12.6020155916       10.8475311281
  H         8.5548787716       15.2297129909       10.8469407841
  H         7.6134958538       12.7743016769       10.8172801102
  H        13.8931677920       17.1437393503       10.8577536829
  H        11.2132235931       17.1319655299       10.8436629220
  H        15.4685965766        8.3394562266       13.2097811894
  H        12.5530822929        7.4090945915       11.7280685873
  H        13.7871695510        7.7407987817       14.2388156788
  H        17.2694946907       10.9073425877       11.8367555277
  H        16.3580381176        9.6910152816       14.3383034164
  H         9.5073086421        8.2899421491       12.9873411451
  H        11.1427427926        7.7281689312       14.1610309696
  H         7.6757435253       10.9403276955       11.7915954847
  H         8.4625429698        9.7013340030       14.1246831930
  H        15.5551779133       16.5618525563       12.0008685488
  H        12.5820895437       17.5483414646       13.2955136139
  H        14.0245103425       17.0140541597       14.2404786265
  H        17.2829251358       13.9262215986       13.3841429213
  H        16.3343058161       15.4115605530       14.2406430576
  H         9.5310464772       16.6639972155       11.9968932041
  H        10.8987579514       17.0570761508       14.2491876684
  H         7.7628574365       14.0183848243       13.2697882463
  H         8.6183498212       15.2850092449       14.2168702351
  H        17.2282382086       12.4008382905       14.2680766637
  H         7.6301355055       12.2507559887       14.2161283190
  H        13.5179110252       16.1725508585       15.9738177561
  H        15.6362972198       14.6676671073       16.0854707855
  H        11.3846902480       16.1842433193       16.1048039195
  H         9.2816566548       14.5626082402       15.9298885344
  H        16.3153783434       12.6520071137       16.0768491473
  H        15.5132539790        9.9844210280       15.8703104786
  H         9.5394301927        9.9164174417       15.7993890422
  H         8.6522728103       12.5825044175       16.0263988979
  H        10.9827685936        8.8526032468       15.7638362906
  H        13.8497542591        8.8472026767       15.9433235095
  H        11.5755552756       13.7672340898       17.3942449116
  H        13.3429800130       13.7494692095       17.4009804434
  H        10.8052872380       11.8739691619       17.3220119098
  H        12.4604304046       10.6200421740       17.3687621022
  H        14.0828140294       11.9167072696       17.3905146761
  H        13.9835052436       10.4635711200        7.7355905281
  H        11.0982659118       10.4377276239        7.7049365961
  H        14.0928990128        9.1437676650        8.6229363559
  H        11.0574237078        9.1961211163        8.4817630976
  H        14.9378175475       13.2412547814        7.7947129002
  H        15.2291731389        9.9533145130        8.6211425959
  H        16.1645570473       12.7968213971        8.4914264793
  H        10.1045320104       13.3153605770        7.8241368364
  H         9.7845122874       10.0366246589        8.5773027616
  H         8.9218137696       12.8829152777        8.5061452387
  H        12.5444717678       15.0529736524        7.8123645590
  H        15.6890703528       14.2965187604        8.6060713889
  H        13.4514442803       15.9892396731        8.5467480943
  H         9.4599073416       14.4369449526        8.5459376078
  H        11.7859888119       16.0525798296        8.5701620433
  H        14.9011677445        7.8238606317       11.1259586196
  H        16.2091886521        8.7773672146       11.1983789900
  H        10.1048611718        7.8860894888       11.0464264047
  H         8.8535322167        8.8099462582       10.9757909878
  H        17.2311593359       14.6998677061       11.0757425436
  H        17.6275863455       13.2784754965       11.0645253859
  H         7.8894413971       14.8180926214       11.0732481219
  H         7.4165024602       13.4459441573       11.0966043850
  H        13.3231593564       17.6409222085       11.0999207380
  H        11.8392403886       17.6601754518       11.1318515094
  H        15.6467268920        8.0739914884       12.4119105524
  H        12.5634242691        7.0413588843       12.6008371593
  H        13.1887869374        7.3029499817       13.9435506152