     147
 i =        1, E =    -18150.4069849582
 Fe        12.4999999084       12.4999999260       12.4999998981
 Fe        14.2060426225       12.4999999703       11.4454588522
 Fe        14.2060425554       12.4999999690       13.5545410264
 Fe        10.7939571631       12.4999999726       11.4454587665
 Fe        10.7939572218       12.4999999712       13.5545411201
 Fe        11.4454588506       14.2060426367       12.4999999607
 Fe        13.5545410407       14.2060425788       12.4999999594
 Fe        11.4454587807       10.7939571865       12.4999999630
 Fe        13.5545411186       10.7939572360       12.4999999616
 Fe        12.4999999643       11.4454588740       14.2060425992
 Fe        12.4999999629       13.5545410392       14.2060425570
 Fe        12.4999999665       11.4454587792       10.7939571646
 Fe        12.4999999651       13.5545411420       10.7939571984
 Fe        15.9546501659       12.4999999734       10.3647594678
 Fe        15.9534970351       12.4999999634       12.4999999742
 Fe        15.9546502020       12.4999999718       14.6352404830
 Fe         9.0453497501       12.4999999761       10.3647594586
 Fe         9.0465028927       12.4999999669       12.4999999773
 Fe         9.0453497088       12.4999999745       14.6352404988
 Fe        10.3647594711       15.9546501706       12.4999999653
 Fe        12.4999999773       15.9534970393       12.4999999531
 Fe        14.6352404853       15.9546502061       12.4999999637
 Fe        10.3647594610        9.0453497542       12.4999999680
 Fe        12.4999999804        9.0465028969       12.4999999566
 Fe        14.6352405020        9.0453497134       12.4999999664
 Fe        12.4999999683       10.3647594751       15.9546501642
 Fe        12.4999999569       12.4999999826       15.9534970327
 Fe        12.4999999666       14.6352404909       15.9546501987
 Fe        12.4999999710       10.3647594665        9.0453497468
 Fe        12.4999999604       12.4999999857        9.0465028902
 Fe        12.4999999693       14.6352405061        9.0453497070
 Fe        14.2268115663       11.4326118885       15.2940453413
 Fe        14.2268115599       13.5673880569       15.2940453560
 Fe        14.2268115461       11.4326118943        9.7059545826
 Fe        14.2268115399       13.5673880564        9.7059545663
 Fe        10.7731883613       11.4326118936       15.2940453430
 Fe        10.7731883656       13.5673880552       15.2940453574
 Fe        10.7731883864       11.4326118994        9.7059545841
 Fe        10.7731883906       13.5673880548        9.7059545680
 Fe        15.2940453423       14.2268115712       11.4326118793
 Fe        15.2940453594       14.2268115644       13.5673880471
 Fe         9.7059545873       14.2268115519       11.4326118842
 Fe         9.7059545686       14.2268115451       13.5673880475
 Fe        15.2940453452       10.7731883665       11.4326118847
 Fe        15.2940453621       10.7731883713       13.5673880451
 Fe         9.7059545875       10.7731883910       11.4326118896
 Fe         9.7059545689       10.7731883956       13.5673880456
 Fe        11.4326118838       15.2940453487       14.2268115624
 Fe        13.5673880496       15.2940453648       14.2268115557
 Fe        11.4326118872        9.7059545907       14.2268115443
 Fe        13.5673880516        9.7059545729       14.2268115378
 Fe        11.4326118888       15.2940453495       10.7731883591
 Fe        13.5673880481       15.2940453655       10.7731883637
 Fe        11.4326118921        9.7059545929       10.7731883823
 Fe        13.5673880501        9.7059545753       10.7731883868
 Fe        17.7242416552       12.5000000057        9.2712043299
 Fe        17.7327702287       12.5000000044       11.4290438775
 Fe        17.7327702418       12.5000000048       13.5709561165
 Fe        17.7242416434       12.5000000065       15.7287956933
 Fe         7.2757584004       12.5000000044        9.2712043450
 Fe         7.2672298707       12.5000000034       11.4290439037
 Fe         7.2672298614       12.5000000037       13.5709560890
 Fe         7.2757584157       12.5000000052       15.7287956744
 Fe         9.2712043291       17.7242416517       12.5000000096
 Fe        11.4290438793       17.7327702215       12.5000000076
 Fe        13.5709561138       17.7327702320       12.5000000080
 Fe        15.7287956904       17.7242416386       12.5000000104
 Fe         9.2712043421        7.2757583956       12.5000000084
 Fe        11.4290439010        7.2672298609       12.5000000066
 Fe        13.5709560908        7.2672298542       12.5000000069
 Fe        15.7287956736        7.2757584121       12.5000000092
 Fe        12.5000000082        9.2712043243       17.7242416593
 Fe        12.5000000064       11.4290438750       17.7327702372
 Fe        12.5000000068       13.5709561166       17.7327702432
 Fe        12.5000000090       15.7287956889       17.7242416442
 Fe        12.5000000069        9.2712043406        7.2757584011
 Fe        12.5000000054       11.4290439039        7.2672298721
 Fe        12.5000000057       13.5709560865        7.2672298698
 Fe        12.5000000077       15.7287956688        7.2757584198
 Fe        15.9828104534       11.4181270261       16.4025583975
 Fe        14.2502830188       10.3473188085       17.0643553521
 Fe        15.9828104651       13.5818729770       16.4025583969
 Fe        14.2464276895       12.4999999960       17.0718490795
 Fe        14.2502830274       14.6526812007       17.0643553588
 Fe        15.9828104190       11.4181270263        8.5974416424
 Fe        14.2502829996       10.3473188399        7.9356447296
 Fe        15.9828104295       13.5818729756        8.5974416436
 Fe        14.2464276370       12.4999999953        7.9281510760
 Fe        14.2502830064       14.6526811661        7.9356447270
 Fe         9.0171895954       11.4181270419       16.4025583458
 Fe        10.7497169829       10.3473188235       17.0643553311
 Fe         9.0171895852       13.5818729599       16.4025583448
 Fe        10.7535723338       12.4999999960       17.0718490228
 Fe        10.7497169748       14.6526811844       17.0643553368
 Fe         9.0171896249       11.4181270412        8.5974416891
 Fe        10.7497170011       10.3473188533        7.9356447481
 Fe         9.0171896160       13.5818729594        8.5974416907
 Fe        10.7535723834       12.4999999953        7.9281511273
 Fe        10.7497169948       14.6526811513        7.9356447466
 Fe        16.4025583901       15.9828104440       11.4181270304
 Fe        17.0643553420       14.2502830143       10.3473188163
 Fe        16.4025583904       15.9828104605       13.5818729779
 Fe        17.0718490667       14.2464276840       12.4999999973
 Fe        17.0643553567       14.2502830277       14.6526812024
 Fe         8.5974416440       15.9828104143       11.4181270302
 Fe         7.9356447312       14.2502829973       10.3473188447
 Fe         8.5974416443       15.9828104297       13.5818729769
 Fe         7.9281510730       14.2464276372       12.4999999965
 Fe         7.9356447207       14.2502830089       14.6526811708
 Fe        16.4025583464        9.0171895955       11.4181270431
 Fe        17.0643553248       10.7497169853       10.3473188282
 Fe        16.4025583464        9.0171895806       13.5818729639
 Fe        17.0718490198       10.7535723340       12.4999999973
 Fe        17.0643553384       10.7497169725       14.6526811892
 Fe         8.5974416827        9.0171896203       11.4181270421
 Fe         7.9356447460       10.7497170014       10.3473188551
 Fe         8.5974416833        9.0171896065       13.5818729637
 Fe         7.9281511146       10.7535723779       12.4999999965
 Fe         7.9356447365       10.7497169904       14.6526811591
 Fe        11.4181270274       16.4025583916       15.9828104481
 Fe        10.3473188146       17.0643553392       14.2502830150
 Fe        13.5818729790       16.4025583916       15.9828104629
 Fe        12.4999999968       17.0718490609       14.2464276833
 Fe        14.6526812005       17.0643553509       14.2502830266
 Fe        11.4181270266        8.5974416324       15.9828104266
 Fe        10.3473188380        7.9356447195       14.2502830015
 Fe        13.5818729786        8.5974416330       15.9828104402
 Fe        12.4999999961        7.9281510517       14.2464276463
 Fe        14.6526811740        7.9356447120       14.2502830114
 Fe        11.4181270448       16.4025583352        9.0171896060
 Fe        10.3473188314       17.0643553161       10.7497169878
 Fe        13.5818729602       16.4025583348        9.0171895928
 Fe        12.4999999968       17.0718489985       10.7535723431
 Fe        14.6526811825       17.0643553268       10.7497169768
 Fe        11.4181270433        8.5974416839        9.0171896226
 Fe        10.3473188532        7.9356447402       10.7497170003
 Fe        13.5818729606        8.5974416849        9.0171896107
 Fe        12.4999999961        7.9281511087       10.7535723772
 Fe        14.6526811575        7.9356447336       10.7497169910
 Fe        15.3257641057        9.6742358921       15.3257641124
 Fe        15.3257641493       15.3257641485       15.3257641497
 Fe        15.3257640558        9.6742359476        9.6742359421
 Fe        15.3257640965       15.3257640895        9.6742359088
 Fe         9.6742359427        9.6742359352       15.3257640619
 Fe         9.6742359027       15.3257641014       15.3257640964
 Fe         9.6742359885        9.6742359877        9.6742359890
 Fe         9.6742359514       15.3257640452        9.6742359586
